5461152
  -OEChem-07221219362D

 21 20  0     1  0  0  0  0  0999 V2000
    4.7057   -1.3628    0.0000 O   0  0  0  0  0  0  0  0  0  0  0  0
    2.4737   -0.4968    0.0000 O   0  5  0  0  0  0  0  0  0  0  0  0
    3.3397   -1.9968    0.0000 O   0  0  0  0  0  0  0  0  0  0  0  0
    6.8038    0.0032    0.0000 O   0  5  0  0  0  0  0  0  0  0  0  0
    5.9378   -1.4968    0.0000 O   0  0  0  0  0  0  0  0  0  0  0  0
    3.1133    1.9968    0.0000 O   0  5  0  0  0  0  0  0  0  0  0  0
    2.0000    0.6700    0.0000 O   0  0  0  0  0  0  0  0  0  0  0  0
    4.2057   -0.4968    0.0000 C   0  0  1  0  0  0  0  0  0  0  0  0
    5.0718    0.0032    0.0000 C   0  0  2  0  0  0  0  0  0  0  0  0
    3.7057    0.3692    0.0000 C   0  0  0  0  0  0  0  0  0  0  0  0
    5.0718    1.0032    0.0000 C   0  0  0  0  0  0  0  0  0  0  0  0
    3.3397   -0.9968    0.0000 C   0  0  0  0  0  0  0  0  0  0  0  0
    5.9378   -0.4968    0.0000 C   0  0  0  0  0  0  0  0  0  0  0  0
    2.9398    1.0121    0.0000 C   0  0  0  0  0  0  0  0  0  0  0  0
    4.5348    0.3132    0.0000 H   0  0  0  0  0  0  0  0  0  0  0  0
    4.3215    0.4412    0.0000 H   0  0  0  0  0  0  0  0  0  0  0  0
    3.2308   -0.0293    0.0000 H   0  0  0  0  0  0  0  0  0  0  0  0
    5.6918    1.0032    0.0000 H   0  0  0  0  0  0  0  0  0  0  0  0
    5.0718    1.6232    0.0000 H   0  0  0  0  0  0  0  0  0  0  0  0
    4.4518    1.0032    0.0000 H   0  0  0  0  0  0  0  0  0  0  0  0
    4.3957   -1.8998    0.0000 H   0  0  0  0  0  0  0  0  0  0  0  0
  8  1  1  6  0  0  0
  1 21  1  0  0  0  0
  2 12  1  0  0  0  0
  3 12  2  0  0  0  0
  4 13  1  0  0  0  0
  5 13  2  0  0  0  0
  6 14  1  0  0  0  0
  7 14  2  0  0  0  0
  8  9  1  0  0  0  0
  8 10  1  0  0  0  0
  8 12  1  0  0  0  0
  9 11  1  6  0  0  0
  9 13  1  0  0  0  0
  9 15  1  0  0  0  0
 10 14  1  0  0  0  0
 10 16  1  0  0  0  0
 10 17  1  0  0  0  0
 11 18  1  0  0  0  0
 11 19  1  0  0  0  0
 11 20  1  0  0  0  0
M  CHG  3   2  -1   4  -1   6  -1
M  END
> <PUBCHEM_COMPOUND_CID>
5461152

> <PUBCHEM_COMPOUND_CANONICALIZED>
1

> <PUBCHEM_CACTVS_COMPLEXITY>
255

> <PUBCHEM_CACTVS_HBOND_ACCEPTOR>
7

> <PUBCHEM_CACTVS_HBOND_DONOR>
1

> <PUBCHEM_CACTVS_ROTATABLE_BOND>
2

> <PUBCHEM_CACTVS_SUBSKEYS>
AAADcYBgOAAAAAAAAAAAAAAAAAAAAAAAAAAAAAAAAAAAAAAAAAAAGgAACAAADUSAgAACCAAAAgAIAACQCAIAAAAAAAAAAAFAAAABABYAAAAAQAAFIAABAADLJgAOgAAAAAAAAAAAAAAAAAAAAAAAAAAAAA==

> <PUBCHEM_IUPAC_OPENEYE_NAME>
(2R,3S)-2-hydroxybutane-1,2,3-tricarboxylate

> <PUBCHEM_IUPAC_CAS_NAME>
(2R,3S)-2-hydroxybutane-1,2,3-tricarboxylate

> <PUBCHEM_IUPAC_NAME>
(2R,3S)-2-hydroxybutane-1,2,3-tricarboxylate

> <PUBCHEM_IUPAC_SYSTEMATIC_NAME>
(2R,3S)-2-oxidanylbutane-1,2,3-tricarboxylate

> <PUBCHEM_IUPAC_TRADITIONAL_NAME>
(2R,3S)-2-hydroxybutane-1,2,3-tricarboxylate

> <PUBCHEM_IUPAC_INCHI>
InChI=1S/C7H10O7/c1-3(5(10)11)7(14,6(12)13)2-4(8)9/h3,14H,2H2,1H3,(H,8,9)(H,10,11)(H,12,13)/p-3/t3-,7-/m1/s1

> <PUBCHEM_IUPAC_INCHIKEY>
YNOXCRMFGMSKIJ-WVBDSBKLSA-K

> <PUBCHEM_XLOGP3_AA>
0.5

> <PUBCHEM_EXACT_MASS>
203.019178

> <PUBCHEM_MOLECULAR_FORMULA>
C7H7O7-3

> <PUBCHEM_MOLECULAR_WEIGHT>
203.12628

> <PUBCHEM_OPENEYE_CAN_SMILES>
CC(C(=O)[O-])C(CC(=O)[O-])(C(=O)[O-])O

> <PUBCHEM_OPENEYE_ISO_SMILES>
C[C@H](C(=O)[O-])[C@](CC(=O)[O-])(C(=O)[O-])O

> <PUBCHEM_CACTVS_TPSA>
141

> <PUBCHEM_MONOISOTOPIC_WEIGHT>
203.019178

> <PUBCHEM_TOTAL_CHARGE>
-3

> <PUBCHEM_HEAVY_ATOM_COUNT>
14

> <PUBCHEM_ATOM_DEF_STEREO_COUNT>
2

> <PUBCHEM_ATOM_UDEF_STEREO_COUNT>
0

> <PUBCHEM_BOND_DEF_STEREO_COUNT>
0

> <PUBCHEM_BOND_UDEF_STEREO_COUNT>
0

> <PUBCHEM_ISOTOPIC_ATOM_COUNT>
0

> <PUBCHEM_COMPONENT_COUNT>
1

> <PUBCHEM_CACTVS_TAUTO_COUNT>
1

> <PUBCHEM_COORDINATE_TYPE>
1
5
255

> <PUBCHEM_BONDANNOTATIONS>
8  1  6
9  11  6

$$$$
